ITEM: TIMESTEP
0
ITEM: NUMBER OF ATOMS
1000
ITEM: BOX BOUNDS pp pp pp
0.000000 27.000000
0.000000 27.000000
0.000000 27.000000
ITEM: ATOMS id type x y z vx vy vz px py pz fx fy fz
1 2 6.586612 0.107338 13.491346 0.000000 0.000000 0.000000 -84.377264 -18.826437 39.767223 5.580780 -1.021761 3.287310
2 1 12.968490 8.416003 7.714570 0.000000 0.000000 0.000000 -5.104516 52.050014 -13.504906 2.536463 5.057514 16.838474
3 2 14.431946 10.478275 12.687230 0.000000 0.000000 0.000000 15.446680 -93.227347 41.219786 -15.885553 -15.649788 6.499397
4 1 19.973065 21.239316 2.475867 0.000000 0.000000 0.000000 -45.374332 73.110001 -25.135059 -6.133805 1.825392 -2.012914
5 2 5.524112 11.536959 12.189529 0.000000 0.000000 0.000000 36.972189 -8.263274 -22.901729 -2.465337 4.684489 4.228335
6 1 20.120988 1.344799 15.545246 0.000000 0.000000 0.000000 -10.585560 -53.858510 -40.807510 -12.315883 0.780582 -27.949085
7 2 6.186507 1.781812 15.492594 0.000000 0.000000 0.000000 75.333248 -20.289205 43.176826 19.562539 -8.339224 3.710427
8 1 10.888409 16.370048 19.834980 0.000000 0.000000 0.000000 -14.248925 5.291969 8.904550 1.009102 -8.385228 -0.370676
9 2 21.810220 13.282436 2.768169 0.000000 0.000000 0.000000 2.241583 -5.132644 74.848221 -2.744036 -3.253106 -23.970087
10 1 26.009368 5.656696 25.408229 0.000000 0.000000 0.000000 -80.100107 -65.129457 -33.253993 13.342697 -3.821163 -0.227222
11 1 25.474642 8.263336 22.338020 0.000000 0.000000 0.000000 -3.788418 -38.939105 -40.792602 11.355729 -5.199918 -17.808184
12 2 9.137710 25.150905 14.106672 0.000000 0.000000 0.000000 57.788487 77.976831 21.037929 -7.754354 -8.538806 6.141389
13 1 15.484951 6.235649 19.177515 0.000000 0.000000 0.000000 -77.280200 27.322890 39.218261 2.891535 8.986955 1.173120
14 2 24.270062 8.778701 25.755613 0.000000 0.000000 0.000000 -6.562428 135.472542 10.690243 1.817262 -4.898341 -2.513968
15 1 0.197130 9.780652 11.677911 0.000000 0.000000 0.000000 -71.378844 37.148398 25.970012 -11.465228 1.269466 -4.804482
16 2 18.856452 12.685867 8.977928 0.000000 0.000000 0.000000 54.737888 -92.675227 38.949524 4.017090 -4.274642 -2.257451
17 1 15.739271 12.096828 0.687406 0.000000 0.000000 0.000000 -89.318882 21.332617 34.665946 11.158007 0.879422 11.608992
18 2 6.648410 20.800816 12.513672 0.000000 0.000000 0.000000 -70.397465 -23.037449 27.728416 -7.811709 -1.101463 -0.108859
19 1 22.378097 6.903652 9.574596 0.000000 0.000000 0.000000 -72.845243 47.274422 -31.455403 -3.738534 -3.880853 -6.319029
20 2 7.675953 3.535069 21.678755 0.000000 0.000000 0.000000 -64.549773 -20.383299 -31.573665 -1.720088 -9.526963 -14.050728
21 2 15.522858 2.646753 4.095427 0.000000 0.000000 0.000000 103.284959 74.025515 -32.489025 -5.932203 -0.135905 -7.390336
22 1 6.655406 6.370579 12.826996 0.000000 0.000000 0.000000 -59.694732 5.196787 96.575631 1.614274 2.836964 6.638583
23 2 20.128156 26.977933 3.499547 0.000000 0.000000 0.000000 5.615710 -62.487971 61.418513 0.571988 6.828909 23.773729
24 1 17.741795 4.291163 7.062644 0.000000 0.000000 0.000000 43.359455 68.793290 -65.259172 0.338720 -10.701797 9.983947
25 2 23.465355 7.715330 1.666106 0.000000 0.000000 0.000000 -14.067425 24.445796 -141.193781 11.624615 -1.018342 6.022984
26 1 26.937525 18.111663 19.019374 0.000000 0.000000 0.000000 42.905492 14.702144 88.800651 2.775685 12.560371 9.085178
27 2 12.914707 24.931510 6.930139 0.000000 0.000000 0.000000 4.368591 46.301970 96.832136 -0.136911 -6.613485 -5.310886
28 1 23.858034 20.643283 1.279093 0.000000 0.000000 0.000000 -92.603531 -24.025411 -24.067601 -0.695035 -4.071591 -9.560830
29 2 14.253775 14.782111 8.232825 0.000000 0.000000 0.000000 8.232493 -38.575335 57.515852 0.364782 -3.670391 1.960961
30 1 4.442872 1.699067 14.216253 0.000000 0.000000 0.000000 41.975534 77.583684 66.586335 8.539517 -4.185401 -8.667202
31 1 26.962303 22.624821 6.041825 0.000000 0.000000 0.000000 53.027139 -89.179134 36.688774 -1.864845 1.379501 -7.606663
32 2 2.402135 21.227681 26.867758 0.000000 0.000000 0.000000 9.939521 -72.396454 63.721768 -6.436665 3.313918 1.187098
33 1 11.223448 6.315565 9.641089 0.000000 0.000000 0.000000 24.504832 -24.072939 33.422521 -7.627553 2.975378 2.668551
34 2 3.207487 7.318296 8.196146 0.000000 0.000000 0.000000 38.423192 -103.267038 15.126494 -0.155835 -6.996355 1.295667
35 1 18.952025 8.791121 10.449052 0.000000 0.000000 0.000000 94.091926 -147.543631 34.622413 4.994516 2.707015 -5.644997
36 2 15.584239 22.694551 19.016982 0.000000 0.000000 0.000000 83.199272 36.809785 74.277426 3.755065 1.452987 -7.612321
37 1 3.828628 8.301157 15.167983 0.000000 0.000000 0.000000 36.299942 -113.220383 65.187882 4.614205 -3.921283 0.478067
38 2 25.591995 18.870041 6.431237 0.000000 0.000000 0.000000 -102.112308 -80.039665 5.446233 -3.438324 -2.000893 -1.635639
39 1 23.434267 8.915872 23.352045 0.000000 0.000000 0.000000 -27.414913 -83.813078 8.709087 -17.546338 14.639631 9.216565
40 2 0.100484 22.039161 17.503484 0.000000 0.000000 0.000000 -65.770587 -13.284882 -0.474362 -3.696973 -5.206300 -3.065809
41 2 21.619990 26.717761 8.157505 0.000000 0.000000 0.000000 -82.803222 -160.050546 -81.492779 -40.356254 -32.253939 35.805695
42 1 20.445347 4.904943 12.492940 0.000000 0.000000 0.000000 116.632068 38.224005 -49.358180 1.061211 -2.921921 -4.678419
43 2 5.232958 25.297474 0.717479 0.000000 0.000000 0.000000 32.195043 49.349730 43.866053 -1.480761 -8.820509 7.711533
44 1 14.804151 5.395351 26.211945 0.000000 0.000000 0.000000 33.087415 45.676171 -84.968068 10.755925 -10.783824 -3.383443
45 2 15.053116 2.410902 19.910158 0.000000 0.000000 0.000000 134.843494 -65.728289 14.527168 -7.735441 -0.317544 -13.180966
46 1 26.324203 4.004657 16.379982 0.000000 0.000000 0.000000 24.637665 -93.726325 68.736666 15.510365 18.720320 9.934756
47 2 3.902005 3.122238 0.866917 0.000000 0.000000 0.000000 108.579188 74.473827 -29.313833 2.414623 -4.375996 6.927527
48 1 10.901558 23.575433 17.673740 0.000000 0.000000 0.000000 43.428079 91.988316 29.286785 -2.390540 -5.605426 -3.226222
49 2 8.622468 20.013772 13.545833 0.000000 0.000000 0.000000 1.429842 103.078966 64.136401 -1.652197 3.278688 5.075081
50 1 9.684293 21.195930 25.324139 0.000000 0.000000 0.000000 9.710181 41.747001 18.658149 6.843227 19.681696 -43.379905
51 1 7.448686 10.452709 23.662482 0.000000 0.000000 0.000000 56.780888 145.667857 -17.579320 13.689076 -5.312459 2.820517
52 2 11.961938 0.868456 11.135313 0.000000 0.000000 0.000000 46.207240 5.230848 -5.687532 5.546440 8.634751 -0.632117
53 1 3.482451 23.943285 0.397579 0.000000 0.000000 0.000000 49.648497 -36.225383 5.230213 -9.548553 -22.280263 -17.872706
54 2 19.281806 9.636931 0.848306 0.000000 0.000000 0.000000 -52.098292 26.182470 41.863155 -2.815930 -8.351142 3.011720
55 1 5.261126 9.908937 0.934867 0.000000 0.000000 0.000000 -56.561639 0.263596 -43.837486 10.488048 31.747299 19.847275
56 2 18.643178 19.088376 2.344331 0.000000 0.000000 0.000000 33.755708 35.248601 -42.265485 -0.798214 3.369610 8.274148
57 1 26.152622 16.876030 21.872303 0.000000 0.000000 0.000000 -16.273471 5.972569 -56.310225 -5.004545 5.884496 -14.853784
58 2 4.735904 18.932568 15.428873 0.000000 0.000000 0.000000 -11.193043 -27.612441 46.253060 -1.622998 2.062318 -7.985243
59 1 24.085348 18.754580 25.992568 0.000000 0.000000 0.000000 -21.050063 -9.229047 -69.782324 6.202101 -32.855229 -37.325859
60 2 4.366469 2.226999 15.406346 0.000000 0.000000 0.000000 -56.581259 -107.560332 -69.677721 -17.662079 5.139747 20.165314
61 2 12.830162 12.881417 21.423078 0.000000 0.000000 0.000000 -1.971061 -52.379561 -48.714116 4.438570 -1.870639 1.748403
62 1 19.595839 1.259987 10.173859 0.000000 0.000000 0.000000 18.291073 -51.415360 77.284366 -11.005777 0.707105 0.945758
63 2 4.708427 2.764980 5.978218 0.000000 0.000000 0.000000 -19.963645 81.481902 -17.852157 4.996606 1.030389 -21.090125
64 1 20.806349 20.979751 20.273362 0.000000 0.000000 0.000000 53.408612 -10.433695 -46.679444 1.827486 18.689245 12.447601
65 2 2.496774 16.475566 2.016169 0.000000 0.000000 0.000000 -31.551503 -18.379871 105.010338 -3.910123 -8.493005 -1.271116
66 1 17.413825 7.630599 14.238671 0.000000 0.000000 0.000000 -48.567819 35.689350 4.849993 -7.569803 4.443509 11.970702
67 2 9.842342 1.013682 10.420267 0.000000 0.000000 0.000000 3.464508 -51.630151 -122.302867 -9.651944 2.181775 -8.625662
68 1 22.595716 18.111030 5.389733 0.000000 0.000000 0.000000 -37.589394 144.083824 -63.623592 -12.997838 12.466888 0.431949
69 2 7.594953 2.839311 12.350962 0.000000 0.000000 0.000000 49.599200 68.192189 -62.993749 7.819101 2.125047 -2.016420
70 1 26.079437 22.306081 15.908036 0.000000 0.000000 0.000000 -91.827455 126.068684 19.173921 8.392619 3.490621 2.355114
71 1 26.891956 3.824952 23.211756 0.000000 0.000000 0.000000 -92.321046 -48.972830 30.674856 0.739885 -14.617491 -30.616012
72 2 6.112541 24.456425 16.930091 0.000000 0.000000 0.000000 -14.283640 25.647716 -60.756528 5.297329 -2.796702 6.603891
73 1 7.671629 15.680091 20.507541 0.000000 0.000000 0.000000 -35.094734 -70.085125 9.980295 2.068575 -3.217731 0.185300
74 2 8.964276 14.564974 17.068216 0.000000 0.000000 0.000000 -17.007742 1.729153 -128.441285 -7.689563 -0.062489 -7.806452
75 1 10.363368 1.310787 13.995199 0.000000 0.000000 0.000000 32.841410 -21.739884 -66.264490 10.580177 -0.160856 -3.413686
76 2 3.622471 0.009274 4.332483 0.000000 0.000000 0.000000 -167.541425 83.132292 27.026491 -15.302719 -43.728120 -13.975364
77 1 19.457792 1.990866 21.838898 0.000000 0.000000 0.000000 -31.859379 -64.545211 42.929517 19.728289 3.019838 -3.181601
78 2 25.844384 23.223182 3.404584 0.000000 0.000000 0.000000 -126.260842 -65.837186 7.475993 10.704714 -9.704748 -1.593918
79 1 17.525841 16.564498 0.813689 0.000000 0.000000 0.000000 48.930584 -63.884395 97.490502 -12.866788 54.168268 56.909320
80 2 26.761483 22.072256 7.230598 0.000000 0.000000 0.000000 -113.811703 5.209420 -26.365238 -0.005185 -2.921215 1.737412
81 2 13.841561 11.939665 2.604386 0.000000 0.000000 0.000000 59.148813 23.727780 -105.652288 21.801327 -2.390511 -3.931683
82 1 14.978788 18.696894 19.391036 0.000000 0.000000 0.000000 112.678331 -33.097466 31.200224 2.419050 -2.825189 0.475672
83 2 5.185172 17.283563 26.750904 0.000000 0.000000 0.000000 140.885746 -10.317210 32.629221 6.895349 4.787016 -0.119356
84 1 25.756341 14.123395 2.475706 0.000000 0.000000 0.000000 -29.515617 4.633119 -22.249410 -3.823274 -0.428150 -4.843339
85 2 0.029931 13.900108 21.193320 0.000000 0.000000 0.000000 -1.810541 -10.779427 41.421336 -3.657375 -0.870528 5.068874
86 1 14.608847 4.617201 16.316182 0.000000 0.000000 0.000000 88.065580 7.638823 28.632590 1.760254 0.628667 -3.718770
87 2 25.524896 25.724991 14.434457 0.000000 0.000000 0.000000 -43.098983 135.484034 -130.957073 -19.747229 11.608410 4.821113
88 1 25.892704 14.590614 26.411826 0.000000 0.000000 0.000000 105.674432 59.540844 20.328096 -46.677792 40.227134 -37.378098
89 2 10.747003 24.454096 11.656266 0.000000 0.000000 0.000000 -79.973294 -12.445633 -3.621801 -2.120214 -2.314417 -2.904970
90 1 9.956471 19.972276 17.232841 0.000000 0.000000 0.000000 125.578531 -43.408085 -9.645562 -2.748872 14.656249 -5.770860
91 1 13.714519 20.619008 16.720048 0.000000 0.000000 0.000000 8.099294 -48.136640 -15.191444 -12.746693 1.137632 -9.006516
92 2 0.398436 11.835279 19.710742 0.000000 0.000000 0.000000 40.320023 -72.394673 -4.682715 -10.956382 -7.396800 18.411173
93 1 6.877242 0.934623 8.019904 0.000000 0.000000 0.000000 -64.568080 -27.140337 -26.621272 1.806147 -6.143922 -4.496294
94 2 9.780604 20.758396 26.331217 0.000000 0.000000 0.000000 -43.546216 -49.804831 70.351851 -12.859775 -28.693821 56.719498
95 1 17.599770 5.556279 13.268875 0.000000 0.000000 0.000000 -54.513140 136.159128 -21.441862 -1.638734 -8.293952 -2.057606
96 2 20.339851 1.600195 23.025103 0.000000 0.000000 0.000000 -84.781926 -40.771423 -95.239720 -0.831297 -7.454368 -3.000972
97 1 4.482376 20.305875 2.476551 0.000000 0.000000 0.000000 -42.975033 52.038357 3.165818 14.277944 8.180589 8.665596
98 2 8.627591 26.918821 21.364581 0.000000 0.000000 0.000000 13.532371 -14.976712 117.219173 2.099566 3.267232 -10.171543
99 1 2.462165 6.807481 21.949288 0.000000 0.000000 0.000000 81.826556 52.864721 -50.362238 -17.004001 0.429290 -20.209150
100 2 24.210162 0.922635 23.476841 0.000000 0.000000 0.000000 -122.835929 63.591176 -39.876462 -0.197839 -1.731705 5.473748
101 1 24.099377 12.708097 24.454680 0.000000 0.000000 0.000000 82.852120 28.980867 101.498735 -0.315869 -6.545054 -1.132435
102 2 23.916249 19.551425 26.767505 0.000000 0.000000 0.000000 -34.199814 -30.525737 -87.860079 -1.211880 35.973988 38.477619
103 1 21.765691 9.495734 17.557639 0.000000 0.000000 0.000000 25.208119 43.580451 -69.737759 -3.479653 -5.728987 -0.907452
104 2 6.469063 0.376536 22.823049 0.000000 0.000000 0.000000 111.835279 11.241604 -13.196801 12.306967 0.906168 -1.459056
105 1 18.060281 14.702785 10.239510 0.000000 0.000000 0.000000 -23.568044 -63.845565 -60.148700 -2.466935 -9.827962 -0.838366
106 2 10.046758 6.071614 14.588901 0.000000 0.000000 0.000000 -38.221719 15.028290 7.260736 11.175295 7.106764 9.538912
107 1 5.418460 9.104069 5.023891 0.000000 0.000000 0.000000 -36.619087 131.436924 66.656081 -1.181936 6.361654 -10.585391
108 2 18.088419 18.375150 0.023921 0.000000 0.000000 0.000000 -74.031546 76.032157 -138.273821 -4.220495 -2.939840 3.747762
109 1 6.968587 13.343421 23.911196 0.000000 0.000000 0.000000 -38.049781 -103.145482 -61.877549 4.248159 2.382770 11.676907
110 2 3.352127 6.602917 1.500903 0.000000 0.000000 0.000000 65.406836 35.645499 -26.653934 7.219796 1.492616 -1.124511
111 2 8.410351 13.617300 6.209275 0.000000 0.000000 0.000000 -92.827414 25.358673 -38.575773 2.297581 -12.985683 0.429255
112 1 17.406971 2.581829 25.076830 0.000000 0.000000 0.000000 -28.283947 9.123784 4.671020 3.914082 8.640838 5.589060
113 2 4.042236 1.813431 12.881149 0.000000 0.000000 0.000000 -92.107805 76.498410 -68.821432 -9.903405 0.165723 -12.719353
114 1 25.316185 24.545465 3.347925 0.000000 0.000000 0.000000 13.381593 28.625832 28.912499 -24.087979 16.653519 -49.438504
115 2 14.687058 21.281406 7.998726 0.000000 0.000000 0.000000 -66.120247 -47.355152 -49.448018 -1.360968 7.341967 5.378977
116 1 4.970130 10.197834 25.170266 0.000000 0.000000 0.000000 14.035048 59.383868 -98.650670 0.415972 -5.008302 -0.751204
117 2 17.081678 9.974707 7.024602 0.000000 0.000000 0.000000 11.207443 21.048975 87.615724 5.199401 -10.240687 -1.750959
118 1 3.996481 1.137064 4.453528 0.000000 0.000000 0.000000 -3.924415 59.609467 -32.240857 10.461282 35.275647 -3.466641
119 2 0.468788 21.609270 15.283253 0.000000 0.000000 0.000000 39.749285 183.234278 -9.850397 -6.044060 4.766068 -5.192345
120 1 18.941791 20.627188 14.817612 0.000000 0.000000 0.000000 92.050178 64.223779 18.561797 -3.244964 -5.163890 -0.892989
121 1 15.299559 8.911376 20.695787 0.000000 0.000000 0.000000 -53.195384 126.820637 60.412006 -6.068571 -4.149593 -2.280111
122 2 22.730213 17.897354 9.733781 0.000000 0.000000 0.000000 40.264795 -63.387435 -50.911507 1.254472 3.771006 -4.358323
123 1 4.493535 7.722380 26.982019 0.000000 0.000000 0.000000 -40.019373 -4.283685 -1.309404 -5.170927 -7.752789 1.875719
124 2 21.559950 18.894699 26.946817 0.000000 0.000000 0.000000 -21.877333 -26.993046 3.412422 -2.595643 14.256386 -3.120541
125 1 12.524415 18.313524 25.371050 0.000000 0.000000 0.000000 -28.287123 -89.394829 -86.284443 2.766989 7.548712 -1.276102
126 2 6.935020 23.474787 2.993778 0.000000 0.000000 0.000000 21.877259 -55.739068 -67.808196 -1.240145 -5.634767 -9.918688
127 1 12.667042 16.394445 14.517054 0.000000 0.000000 0.000000 -62.476363 -34.755805 -145.198363 -9.712679 7.574216 -1.682992
128 2 22.183225 9.208288 13.713389 0.000000 0.000000 0.000000 -67.542421 -27.726736 -98.553475 0.365211 -7.043170 -2.052832
129 1 9.720043 11.832571 4.927936 0.000000 0.000000 0.000000 35.905611 56.264328 64.898161 7.453115 4.541774 8.759039
130 2 15.290477 6.693777 21.671831 0.000000 0.000000 0.000000 -12.215362 12.124191 74.874716 -3.644651 -5.008499 -7.734561
131 2 13.875051 14.552186 12.473954 0.000000 0.000000 0.000000 -78.349272 112.985911 24.284734 1.358769 6.822248 -5.105059
132 1 15.164074 6.497087 8.220630 0.000000 0.000000 0.000000 56.714957 132.383472 -62.731942 1.116137 -4.964053 -1.626636
133 2 4.496802 11.096086 1.062454 0.000000 0.000000 0.000000 -48.950305 -37.257835 13.036778 -9.873442 6.679807 -1.937539
134 1 8.349044 16.799044 7.391536 0.000000 0.000000 0.000000 -51.219753 0.855581 20.289968 -2.125111 -1.799709 -3.440662
135 2 23.941513 20.646496 18.885210 0.000000 0.000000 0.000000 -25.581461 -26.087781 -72.699449 3.254756 4.495361 -3.752083
136 1 5.653029 22.112823 13.366391 0.000000 0.000000 0.000000 -52.786906 28.444296 22.788854 -4.941342 -3.615019 -7.258572
137 2 19.686104 6.161230 25.579695 0.000000 0.000000 0.000000 68.084353 57.735137 15.780727 -16.110320 2.037603 5.222022
138 1 4.202730 19.515892 16.514265 0.000000 0.000000 0.000000 33.401910 13.050067 65.967700 -2.429278 8.164364 9.122143
139 2 20.545647 1.259877 16.677881 0.000000 0.000000 0.000000 1.423357 -54.929321 6.932077 13.695559 -13.776631 24.408170
140 1 24.360217 13.777387 6.170269 0.000000 0.000000 0.000000 22.550255 -17.581034 20.519976 10.390584 -14.902304 -2.186621
141 1 8.100125 25.432568 23.025666 0.000000 0.000000 0.000000 14.255827 25.441839 -25.936406 -0.829008 -4.466903 -5.446875
142 2 10.799721 15.644485 14.455122 0.000000 0.000000 0.000000 72.700163 35.860811 -19.830039 -0.624847 -0.847851 2.364947
143 1 19.770279 10.189404 14.797073 0.000000 0.000000 0.000000 -0.175885 48.828430 24.845661 -0.700856 2.488918 -3.195482
144 2 9.829192 4.373719 17.175845 0.000000 0.000000 0.000000 61.347808 -5.464730 52.367666 -6.105689 -6.185186 2.545458
145 1 7.913626 11.231745 15.523642 0.000000 0.000000 0.000000 7.727189 -30.320014 26.462696 6.232852 2.642475 -0.700936
146 2 0.159330 12.421304 1.686224 0.000000 0.000000 0.000000 22.082004 0.298324 101.570526 2.123537 -6.304190 -6.716851
147 1 7.869955 4.407068 22.913005 0.000000 0.000000 0.000000 9.293696 -96.167399 -6.903950 -3.788858 2.624240 -7.643823
148 2 1.705146 12.050425 3.402045 0.000000 0.000000 0.000000 18.844697 53.226976 -101.190422 2.293296 -5.457454 5.979703
149 1 8.129292 10.628775 7.706545 0.000000 0.000000 0.000000 111.772725 -70.533286 -16.206331 -4.792952 3.554500 2.393971
150 2 2.071792 15.944686 16.078936 0.000000 0.000000 0.000000 43.718290 86.287831 36.382938 -8.771142 3.967308 -3.594089
151 2 11.478531 21.751377 18.522262 0.000000 0.000000 0.000000 53.669768 19.726140 -99.482759 1.228764 4.712475 2.658627
152 1 22.392583 12.433190 8.368814 0.000000 0.000000 0.000000 -1.360163 0.228452 -3.637424 0.866293 -2.281902 -1.883758
153 2 21.336436 17.920197 4.056618 0.000000 0.000000 0.000000 -2.863698 -150.575541 12.154368 2.775901 -6.552968 4.334192
154 1 21.456691 18.180106 12.386152 0.000000 0.000000 0.000000 69.642401 -79.743920 -16.266341 2.806849 3.152317 6.344900
155 2 9.321837 12.005079 18.343492 0.000000 0.000000 0.000000 52.687612 6.790724 17.895983 -10.578401 13.156054 8.678135
156 1 26.156433 6.239694 5.694309 0.000000 0.000000 0.000000 66.820935 -43.570914 -15.185790 1.816579 3.992744 8.726159
157 2 25.849191 17.032266 20.225076 0.000000 0.000000 0.000000 -8.159871 -9.464516 -85.304050 -2.389710 1.677525 0.022876
158 1 9.709703 3.222624 18.237210 0.000000 0.000000 0.000000 107.031022 3.154616 -1.291957 18.455837 -0.146967 -14.401314
159 2 11.661235 17.201839 22.311128 0.000000 0.000000 0.000000 3.336028 82.285575 -28.638323 1.922856 -3.393464 -0.521870
160 1 19.180374 14.073584 20.898337 0.000000 0.000000 0.000000 -40.932194 10.196735 9.928271 4.580400 1.904487 0.414974
161 1 6.857244 16.060426 25.419531 0.000000 0.000000 0.000000 5.833713 39.517131 26.613251 5.633016 -9.283547 5.159761
162 2 5.651217 22.675456 11.655078 0.000000 0.000000 0.000000 -33.318683 73.975332 -24.689296 0.411649 10.485695 9.214219
163 1 19.864780 13.686557 18.026168 0.000000 0.000000 0.000000 -44.324870 71.295155 5.694290 5.370203 7.577880 -0.366551
164 2 0.045051 7.897893 1.118787 0.000000 0.000000 0.000000 -27.922999 46.266681 -15.828271 -8.999679 -4.486050 0.080018
165 1 5.750653 12.625354 5.652192 0.000000 0.000000 0.000000 131.280379 -64.566860 -10.102729 -2.181648 -3.163267 4.925597
166 2 7.583358 20.000032 1.925820 0.000000 0.000000 0.000000 -30.097576 -10.771815 65.155795 1.005768 -6.672120 -6.125119
167 1 7.054879 22.082173 25.293139 0.000000 0.000000 0.000000 26.109455 56.336414 -50.508236 -3.902473 -4.281414 -5.486236
168 2 4.265261 15.846505 15.701527 0.000000 0.000000 0.000000 -31.533417 -1.083837 25.497602 3.419679 -0.299999 -8.610643
169 1 26.645114 25.224138 14.180568 0.000000 0.000000 0.000000 32.916169 -40.773617 -62.471866 15.087890 -9.709146 3.355838
170 2 6.097355 14.923233 16.907120 0.000000 0.000000 0.000000 68.199666 -28.902941 -43.248505 6.958873 -9.248335 4.215441
171 2 14.229133 17.824262 3.338136 0.000000 0.000000 0.000000 -72.683272 85.180098 33.375158 3.033154 3.340181 -2.485089
172 1 17.794228 1.159893 22.502414 0.000000 0.000000 0.000000 4.442125 62.658953 -7.466932 -16.326440 -1.895426 9.746098
173 2 9.361164 0.593441 14.730878 0.000000 0.000000 0.000000 -173.023462 -79.213729 -36.499198 -3.146851 5.404706 2.144682
174 1 7.687292 0.469906 2.333367 0.000000 0.000000 0.000000 76.482107 -87.023502 56.162958 10.306185 14.897307 -17.619959
175 2 9.045984 22.417673 4.708346 0.000000 0.000000 0.000000 0.037058 40.066685 86.737258 0.099685 2.189463 -0.593508
176 1 5.081113 16.562776 7.256184 0.000000 0.000000 0.000000 63.930556 -31.598023 -60.498294 0.958116 -0.491995 3.692522
177 2 6.963137 3.809580 16.879507 0.000000 0.000000 0.000000 -49.406648 -44.749052 103.538032 -5.357717 -37.443948 2.205132
178 1 26.752142 18.374031 10.640460 0.000000 0.000000 0.000000 8.680363 35.564466 4.371672 5.309062 -3.917366 6.588132
179 2 23.869977 11.178389 25.695989 0.000000 0.000000 0.000000 69.127251 77.154531 -97.888506 2.923218 -1.013844 -8.193400
180 1 11.777174 4.067202 3.563927 0.000000 0.000000 0.000000 -31.171932 -71.168586 -36.482740 -4.935446 -1.595042 -5.966926
181 1 1.365640 6.519683 18.890142 0.000000 0.000000 0.000000 13.250131 -52.494419 90.456949 4.855693 -4.538012 1.813969
182 2 20.102455 8.864458 8.504799 0.000000 0.000000 0.000000 88.503794 64.337953 2.570453 -9.905532 25.815443 -49.898596
183 1 26.397017 11.262413 0.801361 0.000000 0.000000 0.000000 -41.643735 -180.221209 110.454245 -5.490505 5.841980 3.286846
184 2 7.717736 16.347978 1.049862 0.000000 0.000000 0.000000 -38.482097 62.083968 -79.959175 5.960558 -1.689454 -2.735774
185 1 5.400964 3.928435 9.219257 0.000000 0.000000 0.000000 45.155927 -24.363667 -54.322064 5.967967 8.676895 10.899260
186 2 15.521949 21.324030 14.743078 0.000000 0.000000 0.000000 -49.870615 33.667928 124.019402 -1.740745 1.029448 3.874310
187 1 0.179595 8.692397 25.721971 0.000000 0.000000 0.000000 -49.453834 4.232830 -125.852027 -2.889403 -5.377381 5.424820
188 2 6.967891 24.667636 19.994458 0.000000 0.000000 0.000000 14.452370 -47.239678 -34.849228 -10.004520 11.052353 -9.444900
189 1 26.915569 16.637624 23.890458 0.000000 0.000000 0.000000 -96.626709 -33.916292 -103.199300 -1.188630 -4.308814 9.917841
190 2 1.373291 0.269308 20.978901 0.000000 0.000000 0.000000 88.949541 28.073142 4.128295 -6.241812 -5.715526 3.921121
191 2 23.474485 14.765278 5.851305 0.000000 0.000000 0.000000 45.941569 59.502532 83.612663 -5.211282 13.522959 4.992525
192 1 2.297734 20.640428 17.334312 0.000000 0.000000 0.000000 -9.511282 19.350234 -15.698986 -18.512712 10.627723 -0.257647
193 2 0.682513 16.256930 4.277834 0.000000 0.000000 0.000000 -2.749616 -7.615964 -38.933882 -2.484669 0.626340 -4.962967
194 1 15.354706 2.026336 16.505448 0.000000 0.000000 0.000000 -27.222130 -78.316902 18.880487 -3.046773 0.065348 -1.223060
195 2 24.093206 16.873049 21.984552 0.000000 0.000000 0.000000 72.675809 -31.568603 -68.335920 1.752220 1.094052 6.110246
196 1 8.057978 0.965606 19.790379 0.000000 0.000000 0.000000 -31.599728 87.802479 -30.390706 -0.181990 -1.770999 -5.761726
197 2 22.086207 22.458469 12.220698 0.000000 0.000000 0.000000 -126.655635 106.039537 10.186753 -2.083907 6.438544 1.082139
198 1 5.189964 6.472851 21.541118 0.000000 0.000000 0.000000 -27.049802 30.421602 -40.831580 3.732092 -5.234210 3.291289
199 2 25.443292 6.474584 22.438167 0.000000 0.000000 0.000000 24.484132 135.275571 -29.301835 0.066360 3.885738 6.881230
200 1 22.178970 14.806245 9.844039 0.000000 0.000000 0.000000 134.487169 -109.509604 -50.246219 -1.630472 0.700176 1.483942
201 2 5.761338 3.971680 25.921683 0.000000 0.000000 0.000000 39.491470 -69.091320 -0.763300 4.681189 7.963231 14.281916
202 1 9.094170 23.644786 14.272599 0.000000 0.000000 0.000000 -29.187312 118.591978 67.323872 6.982291 -0.801557 -2.751234
203 2 13.321065 8.907829 6.470401 0.000000 0.000000 0.000000 -33.278003 -21.392012 -3.646249 17.609393 -1.512012 -20.476782
204 1 14.759530 20.005920 21.351939 0.000000 0.000000 0.000000 -28.925480 -79.406855 33.629735 3.343666 3.659167 8.216299
205 2 26.057786 25.407849 4.266894 0.000000 0.000000 0.000000 -36.967466 -22.228627 -107.845436 7.829532 13.921482 -7.131420
206 1 13.441744 25.535174 4.025546 0.000000 0.000000 0.000000 -67.869441 24.858001 -18.249531 0.165939 -9.827882 -7.502362
207 2 4.002380 24.274524 21.440587 0.000000 0.000000 0.000000 -83.380141 44.008351 -7.964244 1.640966 -0.835696 0.978575
208 1 9.955644 5.441808 6.324886 0.000000 0.000000 0.000000 -21.400409 2.089376 -50.214639 -7.716236 -3.549573 6.041794
209 2 6.305332 15.140537 20.711408 0.000000 0.000000 0.000000 61.466206 49.000973 -1.028056 2.817243 -6.493683 1.450214
210 1 24.983856 9.148988 5.128319 0.000000 0.000000 0.000000 -31.571465 6.357057 -13.202197 3.805528 -0.434188 1.429330
211 1 14.526840 3.270003 1.836868 0.000000 0.000000 0.000000 -24.414211 -3.590522 -13.048518 5.912539 10.407904 0.593491
212 2 11.203778 11.904715 2.196341 0.000000 0.000000 0.000000 76.050461 -83.013206 23.568673 0.105318 -2.787698 6.953332
213 1 21.041742 16.327778 5.705578 0.000000 0.000000 0.000000 35.652314 83.326807 42.096704 -0.063293 2.394386 0.540809
214 2 5.035109 21.658628 4.732231 0.000000 0.000000 0.000000 60.263688 -18.667447 67.062414 2.320041 -1.482756 -8.911065
215 1 12.761905 11.740735 3.124745 0.000000 0.000000 0.000000 8.532889 -11.038971 -135.465296 -27.663231 -3.994686 3.309311
216 2 12.927752 7.880080 2.429167 0.000000 0.000000 0.000000 -74.680360 76.062520 29.137389 0.886559 2.438264 -4.700570
217 1 7.821113 12.459884 21.782381 0.000000 0.000000 0.000000 70.580846 -1.403399 27.491116 -15.482167 8.713126 28.521164
218 2 3.678269 19.401240 2.051853 0.000000 0.000000 0.000000 51.547342 -32.739725 -35.181330 -9.426897 -19.940708 -6.436505
219 1 7.628656 15.535590 16.446569 0.000000 0.000000 0.000000 69.547497 37.379607 -20.806701 -9.407389 5.975985 -5.129494
220 2 13.411705 5.337090 24.388690 0.000000 0.000000 0.000000 -67.897405 124.727125 -69.298752 -6.810912 -8.367245 2.472089
221 2 25.401997 20.284864 24.277604 0.000000 0.000000 0.000000 54.436982 31.043118 -83.103599 3.895113 8.971690 -3.703449
222 1 18.652931 6.157289 20.284897 0.000000 0.000000 0.000000 29.721324 -59.161005 1.451600 0.773533 -2.207333 -4.853504
223 2 9.072433 6.497994 7.316381 0.000000 0.000000 0.000000 67.051213 -38.815378 10.312115 7.170000 -7.663825 -9.537664
224 1 14.930408 13.406829 10.020001 0.000000 0.000000 0.000000 48.615079 -5.958459 7.852879 6.054775 4.755097 -3.418997
225 2 21.787433 11.296738 8.990146 0.000000 0.000000 0.000000 -3.990637 3.704258 -128.424541 -3.198853 -1.937989 -10.882085
226 1 6.089075 23.980020 26.666569 0.000000 0.000000 0.000000 -31.397905 60.571298 41.818299 -0.118260 2.712727 0.628148
227 2 18.781631 3.943768 1.093999 0.000000 0.000000 0.000000 -6.277610 19.984178 -23.698277 9.074422 0.149584 -2.419517
228 1 7.751637 17.532718 3.711361 0.000000 0.000000 0.000000 121.637542 109.169600 -0.270385 4.816976 1.101029 5.507777
229 2 12.695563 12.605195 25.634268 0.000000 0.000000 0.000000 28.851712 145.087633 -19.185273 2.273699 2.704769 -10.340718
230 1 10.585155 11.106207 22.403529 0.000000 0.000000 0.000000 105.238428 -95.947964 128.959154 9.277891 7.086423 1.507343
231 1 2.741203 15.450256 22.592557 0.000000 0.000000 0.000000 -5.195351 -136.633437 -49.238132 1.069449 -3.688440 -1.112793
232 2 26.733617 24.038364 22.929256 0.000000 0.000000 0.000000 18.893100 -4.554991 -96.051031 2.606838 5.983589 -2.535151
233 1 7.504247 25.837900 19.055551 0.000000 0.000000 0.000000 -34.597884 35.504946 -101.260396 0.302147 -6.577867 -2.282396
234 2 17.092521 0.730195 3.697516 0.000000 0.000000 0.000000 -36.461352 5.139089 -11.673057 -2.479313 -2.645886 -2.506222
235 1 4.807436 23.295604 9.554483 0.000000 0.000000 0.000000 3.004949 -4.645720 -65.066064 -12.844902 1.285441 6.695005
236 2 2.260426 25.317399 25.893363 0.000000 0.000000 0.000000 104.472283 -4.951807 -59.197295 5.225219 -0.000435 -6.242889
237 1 8.279874 11.741779 3.554942 0.000000 0.000000 0.000000 -30.225943 19.295988 -68.307399 -10.832024 4.551389 -15.046867
238 2 5.168908 8.831732 0.493947 0.000000 0.000000 0.000000 40.604129 -20.781538 50.579988 -1.856039 -32.633848 -16.973005
239 1 26.029473 12.844611 21.816329 0.000000 0.000000 0.000000 -25.994444 29.679499 4.543213 -0.921336 2.487093 2.351525
240 2 4.577014 26.809506 23.827636 0.000000 0.000000 0.000000 -0.036484 90.710776 -75.496524 -16.457965 -4.302612 1.506100
241 2 8.497969 13.062597 2.840468 0.000000 0.000000 0.000000 -25.180073 -53.187211 80.624387 -0.387896 5.767281 4.842245
242 1 4.441173 4.250891 3.167700 0.000000 0.000000 0.000000 102.972068 -8.158654 30.445901 -3.195876 1.589359 -0.661163
243 2 11.482666 16.054872 0.694892 0.000000 0.000000 0.000000 -53.286697 -11.495288 -94.604994 -7.604069 1.341548 0.448550
244 1 5.387088 16.198719 10.564644 0.000000 0.000000 0.000000 -49.035389 8.898393 -108.884146 39.356245 -17.225004 12.468016