ITEM: TIMESTEP
0
ITEM: NUMBER OF ATOMS
1000
ITEM: BOX BOUNDS pp pp pp
0.000000 27.000000
0.000000 27.000000
0.000000 27.000000
ITEM: ATOMS id type x y z vx vy vz px py pz fx fy fz
1 2 17.062744 13.531226 26.028121 -0.327281 -0.195681 -0.747447 -14.330566 5.343390 8.067863 37.451003 11.195034 14.439333
2 1 1.913174 23.378305 6.187777 3.725625 -2.290741 -5.157829 -0.313566 -16.272636 -9.531419 7.856247 14.456933 12.505146
3 2 21.478602 1.598798 6.195824 4.476170 0.010086 -3.423539 -10.970716 5.651225 6.241631 -8.442299 4.777147 -6.089886
4 1 10.050886 3.637584 3.964853 -0.897063 0.248994 -0.839076 -3.491307 -14.557136 -6.417082 9.366965 -7.818403 -5.609847
5 2 3.425407 18.884661 15.752925 2.198258 4.420028 -4.093650 -12.671064 8.193796 5.728540 2.347990 -8.369851 -4.718502
6 1 8.500144 1.183789 11.382087 1.446935 -3.479045 1.418569 -1.890030 -16.804496 -5.097706 -4.809924 0.091056 -9.916831
7 2 5.956819 3.882292 14.135736 1.731486 0.200275 -0.384826 -12.956873 5.835220 8.123639 0.693722 -0.211198 11.399513
8 1 1.620943 11.421916 19.532634 -0.747543 3.711865 1.306161 -3.431801 -12.424325 -5.392665 6.253076 -5.340121 0.555335
9 2 26.693370 5.178337 9.662601 6.000618 -4.246523 -0.386069 -10.387118 2.963861 8.319278 3.275430 2.506992 -9.616548
10 1 12.444855 9.858270 13.982450 -1.968255 -1.089648 -2.356312 -4.266465 -15.471598 -7.697183 3.949892 0.095160 0.737078
11 1 22.664985 18.037938 13.239582 -1.271595 0.332814 1.113240 -3.707754 -14.603616 -5.215517 5.898687 -3.516426 15.811879
12 2 21.870195 2.927444 9.883182 -1.748339 -1.856183 1.669200 -15.320913 4.487748 9.626979 13.027120 -11.905654 3.441528
13 1 1.494913 17.158128 25.412001 1.571771 -0.748154 -0.527038 -1.863798 -15.220738 -6.483128 12.081182 11.424793 -5.499421
14 2 13.847203 8.950890 7.858807 -4.988991 0.798795 1.545870 -17.374864 6.023659 9.539307 -4.080842 -7.443385 10.417119
15 1 25.268079 2.101347 5.229073 -1.147233 1.460397 -5.905294 -3.721525 -13.828398 -9.815823 -2.705277 1.120261 4.160642
16 2 24.961559 22.884444 17.564755 2.062661 -4.671519 3.033580 -12.852661 2.414532 10.350488 0.865791 8.161277 0.529472
17 1 5.065970 18.769224 15.879982 4.954138 -1.820186 2.442804 0.296793 -15.953659 -4.646847 2.566104 3.216899 5.252250
18 2 8.376167 0.631996 2.525903 3.696997 -0.107184 1.250733 -11.430941 5.506403 9.260060 -1.970819 3.266473 -1.510758
19 1 6.471571 18.819622 22.620760 0.032994 -1.193140 -4.328669 -2.889255 -15.517733 -9.018038 8.089233 3.265845 4.162848
20 2 9.756075 15.152724 2.498483 4.338607 1.742271 -0.578167 -11.017760 6.511740 7.990871 -8.929540 8.147718 -3.809790
21 2 15.308000 4.592201 5.895350 0.845812 4.925134 -1.356720 -13.357906 8.920089 7.484775 -4.895039 -1.955780 -17.136911
22 1 17.206147 26.985987 5.728891 -0.611129 -3.200061 -1.849804 -3.234264 -16.920609 -7.163255 3.279269 -13.664618 1.789357
23 2 5.204657 26.330479 8.329754 -1.146696 1.712043 6.332129 -14.866286 6.481907 12.598800 0.601119 -17.408578 -10.907682
24 1 12.535538 16.552056 1.468934 0.118724 8.894563 -2.783939 -2.820578 -8.731826 -7.890410 1.202672 0.152331 -2.683121
25 2 19.618475 3.961652 19.757174 -0.357561 1.235804 0.042056 -14.407312 6.413529 8.446188 4.836090 0.142380 8.934329
26 1 23.949168 13.692915 0.317353 0.030287 1.258828 0.828865 -2.804450 -13.934113 -5.449047 -4.301970 8.871714 -1.566886
27 2 26.317399 23.804387 25.602391 -4.197478 -1.655575 -0.537737 -16.918276 4.471816 8.032758 -1.231582 -22.629582 -8.202197
28 1 13.126142 4.328299 0.873860 1.914276 -2.249809 -5.178376 -1.677322 -16.169845 -9.218387 -22.695991 -18.168559 -9.365249
29 2 5.786711 25.206155 16.241900 -1.206916 -5.876128 -3.309516 -14.884955 1.604117 6.256070 -2.565215 -4.310098 4.969710
30 1 4.192966 2.124639 6.184938 -0.059301 -0.746081 1.042680 -3.010547 -15.312881 -5.450210 -64.659580 -5.589718 -25.994706
31 1 14.727310 2.199214 15.197202 1.334333 -0.185458 -4.301671 -2.025063 -14.853946 -8.858281 -5.994185 -0.054099 -0.663619
32 2 5.358920 20.674954 0.059103 -0.663016 1.614703 3.676846 -14.344761 6.396651 10.950042 -3.409596 4.604033 4.526581
33 1 15.195179 22.932476 16.698633 -3.769902 4.617962 0.031182 -5.316123 -11.646429 -5.968928 3.593713 2.910335 16.783545
34 2 24.462447 26.473574 12.165662 0.668770 -2.583711 -0.614865 -13.740476 3.804593 8.106859 2.050968 -1.740797 3.523252
35 1 16.018965 17.388033 17.705638 0.250652 0.497157 1.433247 -2.699427 -14.314413 -5.232251 0.356679 -8.399886 -5.604196
36 2 1.932006 3.796409 18.313798 -2.446458 -0.450115 -1.263162 -15.554597 5.430853 7.577480 4.023308 -1.922511 3.258993
37 1 18.091951 25.313945 19.127636 0.545395 -1.310715 -2.270569 -2.438158 -15.600272 -7.502885 1.107438 -6.872235 0.575020
38 2 24.538928 4.143636 11.060699 -2.384548 -0.537376 2.698793 -15.725769 5.326583 10.282071 -9.971025 -1.676363 7.260926
39 1 24.463544 0.583792 13.603308 0.746940 -0.529255 -5.567738 -2.447117 -15.073197 -9.592960 4.013406 -2.541312 -1.097654
40 2 11.007761 23.198808 6.992042 -0.157118 1.184581 1.976404 -14.162946 6.160292 9.716758 -6.373967 5.594187 -10.184199
41 2 0.879474 14.742057 7.916200 4.857118 -4.826020 -1.403348 -10.941019 2.251260 7.543028 -1.862778 5.147847 2.817611
42 1 9.429345 17.263422 15.713592 0.174690 -1.494094 -1.769523 -2.762267 -15.599199 -7.230589 -69.001109 9.079556 -29.116938
43 2 15.846488 6.151146 12.813362 1.972234 -1.154279 -1.500136 -12.749979 4.826273 7.460268 2.585515 -1.426710 0.156078
44 1 0.105217 25.908067 0.578892 1.200821 -1.636317 0.580109 -1.991285 -15.836653 -5.721546 -5.135196 3.429965 -11.322358
45 2 3.641100 10.828040 12.609352 -2.984190 -1.140420 -1.475059 -15.943893 4.820500 7.603698 -14.512554 -24.810760 -29.520347
46 1 13.211479 0.941229 22.538060 -0.830217 -3.647602 -1.865904 -3.429510 -16.939163 -7.151684 -17.434614 -4.769490 -2.660221
47 2 25.224684 20.498102 16.511410 -0.170862 3.206171 -1.740953 -14.314467 7.569584 7.226136 10.851956 -5.705864 -8.442055
48 1 6.004186 4.765599 15.773777 -0.646639 -0.165830 2.614498 -3.318983 -14.859601 -4.438804 -1.698406 9.144126 -3.971162
49 2 8.751984 9.046129 11.070361 4.574568 -3.070176 0.627763 -11.056834 3.489684 8.953078 -0.959906 -9.702265 -1.214069
50 1 19.655816 20.592135 5.000970 -2.859686 1.124782 4.912334 -4.771035 -13.966614 -2.542895 5.229420 3.566441 8.128277
51 1 5.940146 20.941442 25.584534 1.870949 -3.376821 1.115127 -1.545374 -16.915597 -5.355559 -1.204724 -9.622449 2.346224
52 2 20.699654 17.936895 9.869708 0.208522 -0.059946 3.305538 -14.030561 5.435494 10.577406 0.368917 -5.120071 -2.890169
53 1 16.536295 21.782485 25.083433 -0.937185 1.601842 -0.645133 -3.562847 -13.563535 -6.495774 -4.798666 -3.190906 -1.241941
54 2 25.218092 15.091947 14.321958 -3.227229 1.730776 3.961322 -16.344707 6.626526 10.969439 4.817084 -4.302640 -6.035212
55 1 0.349693 20.642077 21.116583 0.998806 2.128495 3.728812 -2.118412 -13.297340 -3.637614 5.584574 3.590309 19.996904
56 2 11.819526 13.820900 18.873160 0.054374 -2.729235 2.609265 -14.102270 3.460418 10.089324 -2.760656 8.687333 6.044510
57 1 14.818721 12.816629 19.296649 2.448461 5.423635 -0.460627 -1.293257 -11.198907 -6.438220 3.820907 0.486686 -12.060774
58 2 22.010220 20.438547 6.905757 -2.754163 -0.293522 4.401548 -15.980256 5.302270 11.389204 -6.430727 -12.802371 -3.485882
59 1 14.226861 25.498802 14.682908 2.579239 -0.674867 -3.969869 -1.081840 -15.176595 -8.636784 2.291062 2.789265 12.473908
60 2 22.330827 10.215029 19.813741 -1.965838 -1.474704 -1.406617 -15.363555 4.538523 7.464738 -7.576515 12.625980 3.105697
61 2 1.821930 10.319438 24.560579 -1.350125 -1.886911 -2.430726 -15.042048 4.242077 7.028770 -5.553632 8.461450 1.102668
62 1 1.555625 25.392725 22.845230 -0.128586 1.893628 0.615284 -2.859297 -13.452255 -5.684287 8.402651 17.729763 13.239784
63 2 11.494140 17.703977 3.762695 -2.250221 2.783463 -1.679242 -15.518781 7.222721 7.238926 21.660229 -4.513181 -8.651658
64 1 15.352368 2.533613 23.243917 1.060603 -3.216861 1.704676 -2.223972 -16.926152 -4.869748 -2.742084 20.081456 -0.982937
65 2 5.752226 23.734359 1.966633 0.494906 1.008378 2.285652 -13.587322 5.999788 10.039506 -3.036374 -11.283169 2.309954
66 1 6.342757 14.046300 18.476021 -7.547586 -4.781586 -4.987948 -7.857465 -17.889562 -9.493999 -3.702612 -5.288250 3.071088
67 2 24.135776 1.860411 22.486329 1.648323 1.599023 -0.677148 -13.044709 6.840567 8.157618 2.287004 -9.300836 3.745954
68 1 11.240407 22.208596 5.915500 3.782473 -2.013632 1.415450 -0.143665 -16.099505 -4.919349 7.441267 -7.486558 0.170854
69 2 3.120161 0.042588 6.222722 -3.596978 3.120627 4.436139 -16.180021 7.604427 11.409113 -3.051980 -1.332276 -5.689574
70 1 12.634653 1.721042 24.980552 5.612714 2.921617 -3.331649 0.673016 -12.757804 -8.086416 -11.096829 2.789021 10.320392
71 1 10.358266 24.491662 23.197973 -1.107132 0.751138 1.160818 -3.558949 -14.132411 -5.259701 2.800730 10.943894 3.499358
72 2 14.888534 22.870590 0.641309 -0.037737 0.448200 -2.875107 -13.865338 5.771446 6.486063 -12.499001 -7.544231 -2.721167
73 1 12.398013 9.022526 19.843481 1.948232 7.016642 -0.825594 -1.563354 -9.873742 -6.642260 21.116184 5.265194 -19.255624
74 2 21.835982 23.203812 6.249536 2.122987 -1.382084 0.647441 -12.472060 4.424646 8.928333 2.145538 -3.158909 5.372015
75 1 11.657839 15.938744 8.586649 -2.369440 0.080726 -2.780253 -4.396373 -14.621782 -7.795973 2.508020 1.278647 -5.440933
76 2 6.010409 5.990947 19.952755 2.085150 -0.307513 4.453206 -12.736283 5.519428 11.133184 8.114757 -10.453095 12.855682
77 1 11.917589 17.477056 18.859366 1.968324 1.352680 1.614098 -1.589239 -13.737379 -5.017853 -0.220713 -0.183998 -7.631808
78 2 25.524892 7.346716 22.719421 2.092832 0.834599 4.058082 -12.653542 6.094713 11.232026 7.740723 3.216182 1.426104
79 1 24.231486 5.696556 18.792762 -0.516294 -2.428728 -0.851497 -3.273645 -16.315146 -6.505883 -4.510273 3.531801 18.118362
80 2 22.291212 15.851314 0.391895 1.997640 -0.863400 -5.274460 -12.705969 4.840737 4.989071 3.592037 3.549788 12.849089
81 2 0.661187 10.769287 7.176818 3.219512 0.162678 -0.098940 -11.942668 5.660997 8.491112 8.136008 4.230998 -8.859643
82 1 25.229379 26.204618 10.238230 2.702336 3.483405 -0.312440 -1.168661 -12.498619 -6.223516 4.779554 5.668235 7.504233
83 2 2.698457 23.275604 24.303022 -2.134435 6.003130 -4.083904 -15.545982 9.269393 5.924515 -21.011576 -7.862003 -3.589242
84 1 5.219367 21.017048 8.505732 -5.043110 1.430906 -3.559461 -6.190921 -13.842552 -8.434000 2.341262 -18.247466 3.773231
85 2 4.438039 23.148742 18.310399 -1.988289 -2.344571 1.411349 -15.390687 3.896699 9.317215 1.624792 1.843514 -1.845580
86 1 0.554809 18.669827 14.317825 3.298679 -1.077538 -0.936443 -0.782919 -15.469437 -6.847672 8.168976 9.758178 5.703440
87 2 1.161099 18.456488 24.061903 2.457369 0.947049 3.873205 -12.500674 5.990807 11.117922 5.542976 -0.138105 -6.476985
88 1 16.676850 15.671645 20.797619 0.688270 0.209432 -1.918416 -2.600672 -14.466775 -7.430278 -1.882092 -2.924985 -16.749274
89 2 19.945559 6.957688 0.837927 -1.785524 0.266789 4.083047 -15.068612 5.699716 11.195882 -38.047568 16.066698 -6.582799
90 1 6.948394 26.512889 4.806575 0.616872 -1.194386 -3.621346 -2.316731 -15.536826 -8.376587 -0.725209 -4.288976 -0.733229
91 1 8.658196 23.976333 14.384739 -0.004092 0.117550 1.288315 -2.836076 -14.571376 -5.095451 2.359199 -1.598265 -6.136181
92 2 13.070034 2.027894 7.055092 2.422728 -2.613833 1.239862 -12.658796 3.921058 9.263992 -6.960074 -5.813057 -2.372830
93 1 0.021027 10.808391 24.863370 -2.010032 -6.677823 -2.728539 -4.299354 -19.255509 -7.961572 4.013282 1.743730 -8.210450
94 2 9.570477 26.495571 10.309387 1.966484 -1.617849 -0.094456 -12.793419 4.352955 8.381307 -3.057049 4.378015 0.988831
95 1 8.101095 8.624444 3.102083 -3.192359 2.866276 2.135980 -5.192263 -12.808926 -4.556154 7.176239 13.365005 -9.504799
96 2 23.934991 2.740284 17.651567 -0.031274 -0.371538 1.768658 -14.182547 5.471202 9.572511 -2.266184 5.441489 -9.619696
97 1 4.235487 20.667275 21.141055 4.805279 2.614293 1.056518 0.384482 -12.977332 -5.393909 21.667249 2.093733 11.364634
98 2 22.887795 4.185888 7.151062 3.088226 3.451317 -4.675566 -12.242512 7.865990 5.588242 1.836582 2.030677 1.917004
99 1 4.308805 23.129072 1.478865 -2.354028 -0.262348 5.005064 -4.350237 -14.925508 -2.784119 0.275379 9.119788 -6.353465
100 2 24.554454 9.886730 21.828259 1.755202 -0.040491 6.121518 -12.875870 5.516695 12.597241 5.072200 4.373160 -9.878509
101 1 23.592053 18.116660 6.831230 -2.199183 0.545518 -2.872236 -4.311966 -14.465129 -7.809911 -5.652549 2.101306 -4.120684
102 2 22.009229 14.148924 14.903001 1.152628 2.406951 -1.851007 -13.479073 7.068105 7.166712 -16.160564 -3.965895 -13.640406
103 1 0.456081 10.017410 11.298745 -4.968510 2.708524 -0.223549 -6.142033 -13.138013 -6.378115 5.453574 -18.692372 4.528916
104 2 24.860839 4.971281 2.978746 -0.560325 0.305688 1.843385 -14.362214 5.849992 9.787565 -1.345946 -0.917956 10.350879
105 1 23.612022 23.509918 10.141231 -0.067859 -2.512590 -1.127276 -2.989492 -16.439118 -6.758863 -4.569075 -5.525198 3.968891
106 2 15.960940 22.246777 3.028201 1.842128 1.650721 -2.319096 -12.581444 6.592718 6.865538 10.976701 5.803712 -0.990162
107 1 22.526166 14.666231 8.097533 1.967673 2.886222 -1.503974 -1.599149 -12.941189 -6.919080 11.460370 10.248511 -19.812240
108 2 3.060458 20.596637 20.831706 3.171376 1.434542 -3.084972 -12.168512 6.358313 6.562625 -18.968510 1.481362 -4.508879
109 1 17.037025 9.533731 19.370705 -4.907038 2.599271 2.440796 -6.085400 -13.039230 -4.547852 -6.714709 8.942598 4.346869
110 2 18.095163 2.274529 18.038004 0.722791 -3.604096 0.781607 -13.710535 3.292065 8.923237 -7.224873 -8.655316 4.471521
111 2 2.254744 26.261532 22.067081 1.937778 2.578417 0.655415 -12.953942 7.085694 8.942484 -1.482948 1.719757 -3.516460
112 1 8.978047 8.982449 15.140715 -0.512534 3.447205 1.021231 -3.262501 -12.342325 -5.367655 6.948904 3.976987 0.395447
113 2 24.464066 1.622362 3.422540 -3.656363 1.218512 3.306277 -16.447094 6.464705 10.773435 -20.631547 -4.905746 21.901022
114 1 5.678203 2.754929 20.450220 -2.508269 -0.065109 -4.063316 -4.475441 -14.811719 -8.589972 -3.490319 -5.482627 6.978977
115 2 22.339384 16.293079 20.820065 -6.263850 -3.033602 1.899015 -18.382711 3.454402 9.698957 5.626890 2.825880 5.442866
116 1 19.695411 26.965100 14.543847 -1.532786 0.464150 -4.604204 -3.823610 -14.417194 -9.059867 -4.295860 5.119689 -7.672949
117 2 8.752191 2.517343 10.438361 6.451425 -2.690147 -0.893285 -10.091606 3.870817 7.906250 -3.114718 -9.779450 -5.549619
118 1 20.039707 17.330055 5.915448 -4.073421 -3.551782 1.040113 -5.623716 -17.064085 -5.309383 1.017175 -1.251877 -3.812326
119 2 22.477664 6.648779 5.140156 3.864632 -3.469175 3.821655 -11.225990 3.089784 11.185076 10.091091 3.664447 4.776587
120 1 24.032017 8.027447 8.988735 -0.660190 0.985454 -4.959883 -3.376807 -14.218296 -9.310701 3.524814 -6.775465 -5.694731
121 1 1.848636 15.157062 4.904071 -2.848162 1.138030 -0.562879 -4.836587 -13.994504 -6.616398 4.848714 5.581270 -1.156912
122 2 2.311439 6.875565 15.794950 0.625630 3.142996 -0.358744 -13.603561 7.566573 8.203035 13.130677 2.364683 -5.063559
123 1 9.362286 1.936661 19.983838 1.460221 -3.355482 -0.634427 -1.954262 -16.764316 -6.361787 -2.969802 -1.436081 -9.492990
124 2 7.738895 25.161859 6.402467 2.235706 0.179280 -1.971874 -12.294487 5.485072 7.042530 3.042115 8.614303 10.122720
125 1 10.519191 14.762139 21.441078 0.954862 5.630978 1.323588 -2.327721 -10.961483 -5.241329 -4.163721 10.530966 1.875093
126 2 15.124058 14.880311 10.728096 0.244874 0.718107 3.746990 -13.870440 5.890063 10.851742 7.772362 0.461619 6.459850
127 1 18.823017 21.849852 13.103858 0.845571 -0.781943 4.710093 -2.301085 -15.372678 -2.759592 -7.469810 -8.531945 9.988038
128 2 3.821927 21.210933 4.386347 -6.835540 -0.158265 -0.663337 -18.386477 5.236917 8.110787 -2.107898 6.741460 -2.067470
129 1 20.660937 17.669463 20.121560 -1.856840 3.408645 -2.727514 -4.081819 -12.468332 -7.857390 9.537428 0.861304 -6.167935
130 2 15.954484 0.102454 23.627922 1.030832 -1.785585 0.350332 -13.435460 4.520751 8.762747 -5.600583 -9.891967 14.483552
131 2 13.198294 24.551349 22.089509 -1.434552 3.120406 -3.616521 -14.963625 7.544762 6.020456 4.570146 -0.521401 -13.501894
132 1 15.262141 19.173109 11.932804 0.949749 -2.459688 -2.732083 -2.169047 -16.457073 -7.739861 -10.465781 2.917966 -0.024535
133 2 17.922489 20.683025 24.071426 2.415456 -0.289534 -2.379295 -12.482864 5.385720 6.895166 -6.019953 -4.529554 13.777374
134 1 21.782010 20.805379 13.236502 -2.871761 -1.813790 -0.852343 -4.832078 -15.980146 -6.578297 2.205545 3.027688 2.855173
135 2 24.128065 18.610359 2.215870 -1.938117 -0.020026 -0.811260 -15.368407 5.411421 8.010131 0.293067 1.859249 -7.833397
136 1 12.824165 23.744115 19.837838 -2.173034 0.192859 0.044867 -4.288455 -14.520889 -5.928037 4.778625 4.399421 7.778467
137 2 12.760719 16.115306 21.986585 -2.221525 2.834915 0.982722 -15.667586 7.269303 9.050572 3.072756 -2.517566 3.136675
138 1 18.853407 10.565818 2.503555 2.208655 -3.206363 2.225391 -1.526447 -16.939041 -4.547913 -8.830335 -4.132214 2.581141
139 2 2.893652 14.313712 23.184956 2.572601 -5.016280 -0.786785 -12.423598 2.032323 8.025317 -4.121352 -9.424766 13.230693
140 1 12.869255 14.489417 4.538009 0.577703 2.341515 2.345731 -2.513260 -13.135178 -4.450366 -4.580415 1.107994 5.916973
141 1 8.292814 6.047545 13.454059 -3.504638 -0.285895 -1.013605 -5.011542 -14.791386 -6.630949 -8.964009 -7.527639 -11.298416
142 2 23.730409 17.967337 8.769467 -2.539926 1.246191 3.386006 -15.820199 6.285932 10.630390 3.781285 -11.055873 1.240153
143 1 19.903461 13.973585 14.754749 1.608461 -5.076507 -2.455380 -1.814949 -17.944902 -7.764410 70.773490 -44.841141 10.380302
144 2 22.144467 4.886403 26.495237 0.984912 0.438437 0.486345 -13.489034 6.063283 8.936742 -1.313085 -23.529594 -1.999340
145 1 25.158165 11.774739 12.800283 -1.207474 -2.466928 4.653014 -3.734937 -16.477372 -3.020552 22.528335 -23.083536 -6.945057
146 2 5.874730 0.639691 13.904654 -2.202790 -3.371483 -0.912842 -15.403383 3.613692 7.795139 2.392796 5.872843 3.335777
147 1 4.157190 22.893348 10.230391 -0.928641 -1.541207 -0.422339 -3.484322 -15.796122 -6.370557 -11.390521 2.809078 -16.438913
148 2 9.432507 5.992130 14.059012 -3.262998 -1.227381 -2.390007 -16.264651 4.813431 6.811995 12.592876 5.540885 10.174358
149 1 25.116602 2.979569 23.708845 3.972193 0.973564 0.565942 -0.348332 -14.167856 -5.606217 4.346144 2.825141 -3.871694
150 2 18.481677 19.367005 6.370614 -1.347116 1.300172 1.463277 -14.870951 6.259329 9.377983 5.944506 -15.531014 10.294342
151 2 8.811242 4.578533 18.659025 0.885233 3.496963 0.833459 -13.576410 7.875088 8.900858 7.014364 -12.639259 5.037028
152 1 24.428274 17.119613 10.776186 0.202503 5.679759 -0.139589 -2.748246 -11.120527 -6.030864 -19.700360 9.616863 -11.188314
153 2 24.182872 11.405488 6.996220 -0.158198 -0.008671 -0.620941 -14.160093 5.589599 8.084178 -1.256226 3.623025 5.495743
154 1 6.314464 19.508299 18.777310 1.393020 -0.048615 -4.437608 -2.023271 -14.799587 -9.127627 -13.231794 -6.283021 -4.102909
155 2 12.015253 25.748520 10.922849 -0.905943 -5.004185 -2.822828 -14.646293 2.166347 6.620512 -10.457597 8.229955 -0.613930
156 1 22.331480 17.183826 23.495182 3.695715 3.289502 -1.287200 -0.428514 -12.623257 -6.951262 4.270520 -7.337933 -2.134311
157 2 5.164856 0.353387 23.870605 1.738390 -6.120454 1.242387 -12.976390 1.749615 9.441104 3.673758 -17.400185 12.118252
158 1 16.300619 8.051665 16.871181 2.898552 2.105889 0.632772 -1.001433 -13.361239 -5.726067 -6.776463 8.274747 4.844399
159 2 3.118631 10.010712 9.768496 0.282864 2.006930 1.355066 -13.836788 6.850392 9.428897 -12.389348 4.619753 10.155686
160 1 10.898584 26.563618 19.898951 -1.298833 0.205051 3.627779 -3.703355 -14.512738 -3.527969 -19.001090 -31.871705 24.860037
161 1 18.640523 7.396918 16.245938 -1.368712 -0.352714 1.330726 -3.779446 -14.962014 -5.271835 2.481500 18.439132 -25.715631
162 2 26.743050 21.650305 12.607888 -1.305825 -2.960390 -1.414156 -15.031970 3.557969 7.584053 -5.958187 -15.490191 1.295266
163 1 19.869325 10.496153 5.591849 1.522924 -2.056456 0.071685 -1.986269 -16.167994 -5.990926 8.438345 4.623799 14.451729
164 2 3.458221 24.857337 26.238877 -0.100833 2.767620 0.308805 -14.250689 7.205930 8.722048 19.706095 1.589654 4.847091
165 1 25.828558 0.415763 24.397925 -1.619520 0.229030 5.289532 -3.972524 -14.650465 -2.543424 5.005373 0.300444 7.956573
166 2 2.950783 13.517026 1.106666 -3.525494 -1.075178 1.332770 -16.194227 4.654048 9.383990 1.299283 -8.271922 -1.953756
167 1 0.959903 2.591230 6.734802 1.836852 1.363792 1.827336 -1.804495 -13.971006 -4.950931 21.159416 6.763004 11.443581
168 2 18.672716 5.322075 11.186405 -0.015943 -2.409731 0.259460 -14.075167 3.989575 8.633096 -1.607823 6.434969 -2.423357
169 1 22.369863 21.028766 18.290998 -0.354119 -4.056907 0.672594 -3.055730 -17.352921 -5.526497 -14.787791 2.082702 38.996660
170 2 8.393659 19.234288 22.694876 -0.799367 1.145541 2.122152 -14.681612 6.097973 9.840057 -5.023547 -2.255085 2.267943
171 2 24.570037 24.089452 0.995703 -1.529149 -0.846338 -0.049393 -14.977953 4.792344 8.450234 14.580179 -33.066842 -9.582530
172 1 2.658189 17.140554 15.827706 -0.177184 2.426198 -2.488454 -3.045686 -13.188466 -7.857989 21.746970 2.198339 -0.327583
173 2 19.027160 26.234362 8.488712 2.713429 -2.263159 -2.218941 -12.193927 3.972310 7.072536 0.759927 14.310148 -0.962689
174 1 13.164663 18.281648 15.092204 -0.317315 -1.386992 0.682174 -3.084017 -15.529035 -5.627415 3.029034 6.059793 -3.162097
175 2 4.151244 5.981556 11.338436 -1.699050 -6.160652 3.336363 -15.133119 1.660050 10.697034 -4.734390 3.553736 3.015413
176 1 9.883352 10.961309 23.495142 -2.013507 0.768650 0.554140 -4.380661 -14.159166 -5.664450 -3.559222 -5.704146 9.067918
177 2 3.826346 11.888506 16.159542 0.568846 -2.138476 -3.240190 -13.640337 4.127924 6.327021 -0.843445 -3.909519 8.780716
178 1 10.399163 14.539264 0.100334 -1.441747 -1.178048 0.356060 -3.865584 -15.492375 -5.783085 -0.237353 2.536289 3.779538
179 2 23.689816 22.122962 24.638025 -1.332104 -1.130376 -6.056606 -15.026362 4.818369 4.385615 6.278975 2.731175 7.167317
180 1 21.361915 13.038684 12.148782 -3.430269 0.207373 2.355355 -5.188597 -14.727544 -4.524678 -1.750963 3.547027 -3.755628
181 1 2.321360 9.402672 16.820945 2.248414 3.838940 1.566164 -1.499025 -12.341828 -5.224736 -6.459758 14.145661 3.541994
182 2 13.109817 15.174524 8.196579 0.879137 -0.851711 -2.088794 -13.556449 4.786295 6.943462 -3.342002 -3.411393 -4.843857
183 1 16.972087 11.540269 7.738053 1.136352 3.525659 -0.911818 -2.135741 -12.454891 -6.721918 -2.280357 0.045272 -2.222377
184 2 12.065446 0.558034 23.793824 -2.516422 -0.962406 2.132551 -15.861145 5.008989 9.892504 13.861358 -6.558359 -6.037799
185 1 26.031381 21.222307 4.953585 3.041286 -1.298965 -2.599995 -0.782411 -15.626179 -7.671491 -0.765180 -22.253284 11.678791
186 2 8.097502 4.323635 4.105042 -0.425397 -0.724415 2.366548 -14.274419 5.080795 10.029318 5.474727 -8.013702 0.199154
187 1 4.728590 11.625152 17.577168 5.026958 -2.441993 -1.084806 0.294320 -16.394375 -6.935127 -16.484619 4.593286 6.786124
188 2 5.520693 21.305815 12.696101 0.291177 -1.339586 -1.551286 -13.942106 4.521687 7.534029 7.483490 -1.426029 17.007622
189 1 16.982914 9.244209 12.601676 -0.116763 2.548629 2.128609 -2.975109 -13.109663 -4.685511 -7.403073 4.143925 -2.814555
190 2 0.330306 21.059843 23.206455 1.788330 -0.795264 -2.687136 -13.048857 4.939589 6.816325 -1.820875 3.439267 0.664260
191 2 21.406860 10.162436 7.577242 -1.273159 -2.139276 -1.073329 -14.882491 4.209178 7.791002 11.552872 -0.876236 -8.646229
192 1 5.509146 3.648895 4.763492 2.352906 -1.004099 -3.890235 -1.475632 -15.477475 -8.588758 12.666002 9.302871 -7.739495
193 2 8.881986 22.551214 22.297873 3.504877 -2.282708 -1.853324 -11.716659 3.992560 7.179705 -15.314229 -2.421540 13.851850
194 1 15.556897 0.227246 2.507576 0.921358 1.046877 -3.100209 -2.376453 -14.148690 -7.958590 0.257889 -1.488650 -3.059136
195 2 2.810891 3.622281 5.926263 -1.509960 3.253429 1.526969 -14.831962 7.688466 9.530310 3.862221 0.007374 0.058666
196 1 3.283928 4.146895 23.594498 1.585046 -0.717941 1.465707 -1.871474 -15.226835 -5.072169 -5.082488 22.917694 -6.396103
197 2 8.186708 7.472321 4.044906 1.293116 -1.014697 -2.387789 -13.021910 4.727235 6.846980 -6.979033 -6.684720 3.471751
198 1 1.920183 2.083404 18.757392 -0.312530 1.867502 -3.927171 -3.106504 -13.566039 -8.600178 -13.361857 -7.615246 12.104468
199 2 10.641885 20.030219 25.330968 3.848941 -4.310310 0.048131 -11.457708 2.314100 8.402694 7.221999 -5.947120 -13.030295
200 1 19.880995 26.849883 22.404165 0.687059 0.225951 -1.587109 -2.437446 -14.516893 -7.148498 0.390654 2.034116 0.383764
201 2 22.239912 20.641229 10.675847 -0.565093 2.381035 0.028321 -14.547448 7.051370 8.527544 5.543353 17.495935 -0.722635
202 1 2.862802 2.214032 2.515101 -3.222573 -0.742150 -0.997142 -5.022821 -15.310515 -6.747625 -17.318629 -7.362974 3.420582
203 2 10.243233 7.579791 21.530476 -3.046405 1.934964 -1.754346 -16.070242 6.722755 7.425041 4.124519 11.534994 3.876831
204 1 25.955256 18.321068 19.836933 -0.078729 -1.377880 -3.191719 -2.907369 -15.629716 -8.163365 -8.491226 -1.056328 -10.994799
205 2 0.166717 6.127543 17.449284 -0.551847 2.586704 -3.809149 -14.376668 7.319821 5.993489 -16.143557 -5.902743 -0.210576
206 1 5.674029 0.465218 2.178404 -2.210065 -0.853470 2.450307 -4.378727 -15.381259 -4.554571 -5.060361 -3.661945 6.736603
207 2 10.189850 8.481605 2.917041 -1.526451 1.386800 0.221754 -14.937750 6.359052 8.620174 11.899351 5.425918 -0.823775
208 1 13.051361 24.253772 26.350344 1.032539 1.877426 0.884700 -2.153293 -13.392368 -5.441120 13.697756 4.906174 -2.135002
209 2 22.568548 21.917587 2.629048 -1.145773 -2.759722 -1.798352 -14.715132 3.479085 7.249980 -5.969413 2.817533 1.958383
210 1 15.604361 26.411223 25.549359 2.311714 3.467504 1.137041 -1.310879 -12.269449 -5.260558 3.485896 7.027443 3.778227
211 1 7.413340 7.905830 10.834430 -4.954442 -2.400891 -1.151331 -6.299259 -16.426429 -6.902093 25.422555 -5.866114 3.923440
212 2 11.073083 9.095953 25.226972 -4.903788 -0.542965 0.827944 -17.280457 5.109153 9.106546 -3.501101 1.591564 -1.387877
213 1 14.972844 18.175955 26.381403 -2.701620 0.679728 -5.127331 -4.963242 -14.138778 -9.668549 2.143950 -10.030048 -15.464774
214 2 8.424987 20.820762 0.100842 -2.111698 0.814624 -0.225514 -15.205956 5.910561 8.212112 -7.322029 4.164293 7.708987
215 1 4.188896 10.902111 10.891300 1.815472 0.042860 2.456752 -1.785451 -14.850104 -4.657472 3.961969 -3.097334 -9.936820
216 2 7.737440 11.554210 23.418791 1.805970 -4.344083 0.612211 -12.910853 2.633646 8.965850 10.103284 -10.267037 13.844592
217 1 19.148290 26.363055 2.689741 5.480273 0.507789 -0.266021 0.927717 -14.387947 -6.081844 -19.184091 -16.629523 -6.048352
218 2 15.179422 16.308419 19.535149 0.670858 -1.295864 -1.647737 -13.794434 4.543025 7.269436 -2.251581 10.648940 7.880644
219 1 17.458602 3.552899 25.044083 0.846579 0.215693 3.398022 -2.369446 -14.593247 -3.719106 1.930400 6.661321 9.536630
220 2 1.019887 4.176283 26.779595 1.889241 1.445021 -2.684854 -12.878665 6.701461 6.871690 -3.030964 4.089367 -6.890497
221 2 4.792557 5.194698 8.207070 0.331367 3.640480 -1.794474 -13.846214 7.871068 7.445608 2.397699 -2.851876 -3.374229
222 1 8.054756 12.936811 23.955112 -0.043524 3.354072 5.221576 -3.022275 -12.373720 -2.441951 -7.197741 3.444929 1.503501
223 2 21.425061 8.995299 24.522219 1.494228 4.932698 0.589731 -13.048692 8.801985 8.941279 9.099513 -9.922709 -16.792054
224 1 21.362500 25.151814 19.445670 0.507146 -3.994636 0.726948 -2.494942 -17.312353 -5.491108 -1.740101 -3.963145 -2.548274
225 2 5.703593 8.461235 22.150834 2.863052 1.612344 2.490004 -12.206118 6.597649 10.340966 4.039730 -1.303869 -0.019547
226 1 25.658442 24.704315 16.305027 2.684751 0.698597 -1.186517 -1.077466 -14.256627 -6.736884 -6.869715 -6.679859 -2.317942
227 2 10.558050 9.290505 15.602770 -5.111923 2.078493 -1.082963 -17.426931 6.813159 7.723892 -9.120010 0.009318 -2.688502
228 1 17.118416 23.350641 21.255323 -3.516669 5.406571 0.764806 -5.353221 -10.922280 -5.518126 -6.245023 2.340780 -1.606131
229 2 8.634887 23.918237 25.611622 -0.572434 -0.984138 3.550651 -14.396865 4.846278 10.731388 9.142749 -8.808776 -10.533617
230 1 9.785685 1.099518 22.882586 3.279506 -2.085862 -1.123845 -0.814908 -15.945499 -6.679586 4.677935 -16.055853 -5.904130
231 1 2.355017 17.221255 10.727514 -2.622782 -3.496594 2.425424 -4.627074 -17.092958 -4.563156 -4.687457 -2.608723 1.305881
232 2 7.492890 1.555039 26.082113 0.394361 -2.624432 -2.245846 -13.902011 3.890408 6.945511 -3.371615 5.151157 6.409802
233 1 22.034708 10.459451 12.117023 -0.894899 -0.018728 -2.349981 -3.530024 -14.875334 -7.602098 -10.489240 -9.596819 12.845161
234 2 6.702100 11.835710 17.709480 -1.241725 -0.315335 -0.094026 -14.818934 5.315144 8.375411 -3.211194 2.006138 0.840184
235 1 12.912202 9.978574 9.076460 2.572386 -2.327746 -3.607925 -1.105225 -16.375582 -8.596823 -1.157160 10.949191 -4.164906
236 2 11.160514 5.002070 10.354608 1.364397 -4.083133 -0.371436 -13.331957 2.985922 8.238906 4.232114 2.782740 -9.663059
237 1 9.607139 3.355975 0.174788 1.720634 2.812347 -2.352607 -1.803042 -12.903660 -7.393626 24.341556 5.131349 -1.846025
238 2 16.264777 7.000625 6.570435 0.088925 0.679475 -4.980700 -13.794228 5.980602 5.033574 19.958385 -7.508902 6.378899
239 1 23.121994 23.778203 5.861198 -1.713559 1.200575 -1.141274 -3.967132 -13.952142 -6.693959 -5.295334 5.119077 -15.640734
240 2 4.522668 15.109456 26.508791 2.141714 -2.976130 1.210173 -12.710427 3.387717 9.350528 -1.127234 4.763920 -6.239252
241 2 0.182414 2.455856 5.844740 1.937041 1.291062 0.404580 -12.608900 6.422487 8.806192 -27.455492 -3.518191 -22.328971
242 1 5.302832 2.871531 7.973785 -1.740373 -0.719725 -0.434905 -3.994934 -15.253758 -6.418289 3.376041 25.891069 17.895220
243 2 15.340301 0.614488 10.633625 -1.579034 -1.624581 0.078364 -15.116911 4.512888 8.512433 -4.130021 -1.081429 5.949337
244 1 4.591781 5.919189 6.304093 -0.467000 3.898001 -0.286105 -3.270010 -12.358651 -6.295225 -3.549133 -1.897349 12.806319